###############################################################################
# Aminoff, G. (1923)
# Zeitschrift fuer Kristallographie, Kristallgeometrie, Kristallphysik, Kristallchemie (-144,1977) 58, 203-219
# Untersuchungen ueber die Kristallstrukturen von Wurtzit und Rotnickel\
#kies.
# 
# CIF by ICSD-for-WWW,  Copyright 2003 FIZ-Karlsruhe & A.W.Hewat (hewat@ill.fr)
# NOT TO BE PUBLISHED IN ANY FORM. See http://icsd.ill.fr/icsd/conditions.html
###############################################################################

data_31062-ICSD
_database_code_ICSD                31062
_audit_creation_date               1980-01-01
_chemical_name_systematic
'Nickel arsenide (1/1)'
_chemical_formula_structural       
'Ni As'
_chemical_formula_sum              
'As1 Ni1'
_publ_section_title                
'As1 Ni1'
loop_
_citation_id
_citation_journal_abbrev
_citation_year
_citation_journal_volume
_citation_page_first
_citation_page_last
_citation_journal_id_ASTM
primary 'Zeitschrift fuer Kristallographie, Kristallgeometrie, Kristallphysik, Kristallchemie (-144,1977)' 1923 58 203 219 ZEKGAX
loop_
_publ_author_name
Aminoff, G.
_cell_length_a                     3.57
_cell_length_b                     3.57
_cell_length_c                     5.1
_cell_angle_alpha                  90.
_cell_angle_beta                   90.
_cell_angle_gamma                  120.
_cell_volume                       56.29
_cell_formula_units_Z              2
_symmetry_space_group_name_H-M     'P 63/m m c'
_symmetry_Int_Tables_number        194
_refine_ls_R_factor_all            
loop_
_symmetry_equiv_pos_site_id
_symmetry_equiv_pos_as_xyz
  1     'x, x-y, -z+1/2'
  2     '-x+y, y, -z+1/2'
  3     '-y, -x, -z+1/2'
  4     '-x+y, -x, -z+1/2'
  5     '-y, x-y, -z+1/2'
  6     'x, y, -z+1/2'
  7     '-x, -x+y, z+1/2'
  8     'x-y, -y, z+1/2'
  9     'y, x, z+1/2'
  10     'x-y, x, z+1/2'
  11     'y, -x+y, z+1/2'
  12     '-x, -y, z+1/2'
  13     '-x, -x+y, -z'
  14     'x-y, -y, -z'
  15     'y, x, -z'
  16     'x-y, x, -z'
  17     'y, -x+y, -z'
  18     '-x, -y, -z'
  19     'x, x-y, z'
  20     '-x+y, y, z'
  21     '-y, -x, z'
  22     '-x+y, -x, z'
  23     '-y, x-y, z'
  24     'x, y, z'
loop_
_atom_type_symbol
_atom_type_oxidation_number
Ni0+     0.
As0+     0.
loop_
_atom_site_label
_atom_site_type_symbol
_atom_site_symmetry_multiplicity
_atom_site_Wyckoff_symbol
_atom_site_fract_x
_atom_site_fract_y
_atom_site_fract_z
_atom_site_B_iso_or_equiv
_atom_site_occupancy
Ni1 Ni0+ 2 a 0 0 0 0. 1.
As1 As0+ 2 c 0.3333 0.6667 0.25 0. 1.
#End of data_31062-ICSD
